 TITLE = "flo2d output" 
 VARIABLES="X","Y","rho","u","v","p","M"
 ZONE F=FEPOINT,ET=quadrilateral
 N=       24832 ,E=       24576
        1.000000         0.000000         0.066525         0.918192         0.021835         0.005383         2.728781
        1.000000        -0.000020         0.077933         0.980977         0.022813         0.010675         2.240711
        1.000000         0.000020         0.077003         0.981687         0.021554         0.010446         2.253162
        1.000002         0.000000         0.419012         0.538693         0.021639         0.163847         0.728654
        0.999998        -0.000042         0.075101         0.927916         0.037363         0.008011         2.403188
        1.000002        -0.000020         0.426232         0.555274         0.046220         0.167525         0.751147
        0.999998         0.000042         0.073080         0.934342         0.007809         0.007619         2.445655
        1.000002         0.000020         0.424150         0.553817        -0.002647         0.166527         0.747006
        1.000006         0.000000         0.636398         0.704237         0.021792         0.280771         0.896501
        0.999992        -0.000066         0.085040         0.886079         0.066481         0.010285         2.159400
        1.000000        -0.000042         0.445460         0.580448         0.098034         0.178506         0.785932
        1.000005        -0.000020         0.638898         0.707154         0.040422         0.282232         0.900681
        0.999992         0.000066         0.078854         0.875795        -0.026634         0.008001         2.324704
        1.000000         0.000043         0.440589         0.578351        -0.053627         0.176174         0.776306
        1.000005         0.000020         0.636646         0.705475         0.003245         0.281019         0.897436
        1.000012         0.000000         0.784393         0.829635         0.021869         0.364826         1.028485
        0.999982        -0.000091         0.108015         0.848869         0.114079         0.016498         1.852190
        0.999994        -0.000066         0.467875         0.604362         0.163456         0.189600         0.831206
        1.000003        -0.000043         0.647505         0.718294         0.075303         0.287896         0.915410
        1.000011        -0.000021         0.783226         0.828423         0.034320         0.364176         1.027657
        0.999981         0.000092         0.101664         0.846893        -0.073870         0.014339         1.913093
        0.999994         0.000067         0.463133         0.605699        -0.120839         0.187745         0.819855
        1.000003         0.000043         0.643400         0.715877        -0.031375         0.285728         0.908772
        1.000011         0.000021         0.781110         0.826829         0.009362         0.362970         1.025181
        1.000020         0.000000         0.882919         0.908060         0.021888         0.422874         1.109256
        0.999965        -0.000115         0.167396         0.818432         0.186862         0.036136         1.527058
        0.999983        -0.000091         0.503801         0.644197         0.226354         0.207086         0.900095
        0.999997        -0.000067         0.661230         0.735848         0.118251         0.295339         0.942489
        1.000008        -0.000044         0.784018         0.830791         0.055726         0.364866         1.031572
        1.000019        -0.000022         0.880644         0.906214         0.029792         0.421518         1.107627
        0.999963         0.000117         0.156565         0.826201        -0.143187         0.032149         1.563900
        0.999982         0.000093         0.496990         0.645115        -0.189280         0.203889         0.887120
        0.999997         0.000068         0.657218         0.735502        -0.075764         0.293641         0.934885
        1.000008         0.000044         0.780733         0.828522        -0.012067         0.363035         1.026983
        1.000019         0.000022         0.878908         0.904900         0.013874         0.420485         1.105819
        1.000031         0.000000         0.941697         0.953605         0.021877         0.458695         1.155082
        0.999941        -0.000138         0.284405         0.849260         0.235969         0.082901         1.379790
        0.999966        -0.000116         0.558439         0.710709         0.280531         0.234276         0.996998
        0.999986        -0.000093         0.684230         0.766859         0.158396         0.307614         0.987010
        1.000001        -0.000069         0.790187         0.840416         0.081794         0.368190         1.045458
        1.000015        -0.000046         0.878544         0.905736         0.042108         0.420239         1.108000
        1.000030        -0.000023         0.939750         0.952170         0.026590         0.457490         1.153812
        0.999938         0.000141         0.276746         0.852057        -0.198874         0.079624         1.378610
        0.999964         0.000118         0.549729         0.711080        -0.246385         0.229696         0.983948
        0.999985         0.000094         0.679309         0.766808        -0.119322         0.305224         0.978458
        1.000001         0.000070         0.786302         0.838649        -0.039409         0.366221         1.039724
        1.000015         0.000046         0.876003         0.903849         0.001389         0.418755         1.104855
        1.000030         0.000024         0.938511         0.951215         0.017047         0.456726         1.152594
        1.000045         0.000000         0.973181         0.978130         0.021856         0.478490         1.179238
        0.999910        -0.000157         0.485721         0.914004         0.221740         0.181640         1.299839
        0.999942        -0.000139         0.634547         0.807590         0.294790         0.274222         1.105271
        0.999968        -0.000118         0.719873         0.816598         0.189648         0.326692         1.051744
        0.999989        -0.000095         0.803155         0.859005         0.106487         0.375289         1.070187
        1.000008        -0.000072         0.880325         0.910594         0.056775         0.421102         1.114887
        1.000025        -0.000049         0.937676         0.951379         0.033249         0.456156         1.153518
        1.000044        -0.000026         0.971950         0.977268         0.024454         0.477705         1.178495
        0.999904         0.000159         0.480352         0.917822        -0.189223         0.178774         1.298256
        0.999938         0.000142         0.627687         0.811873        -0.262379         0.270413         1.098635
        0.999966         0.000120         0.713502         0.816330        -0.152472         0.323220         1.042788
        0.999989         0.000096         0.799040         0.858021        -0.066125         0.373102         1.064365
        1.000007         0.000072         0.876783         0.908342        -0.014330         0.419091         1.110533
        1.000025         0.000049         0.935859         0.949990         0.010183         0.455049         1.151479
        1.000043         0.000026         0.971177         0.976654         0.019163         0.477213         1.177751
        1.000063         0.000000         0.988496         0.990302         0.021837         0.488380         1.191017
        0.999871        -0.000168         0.700066         0.966974         0.165851         0.302455         1.261494
        0.999911        -0.000158         0.742795         0.910029         0.246107         0.334363         1.187528
        0.999944        -0.000141         0.767836         0.879433         0.197277         0.352656         1.123979
        0.999971        -0.000121         0.826100         0.890247         0.124681         0.388110         1.108418
        0.999995        -0.000098         0.886242         0.920542         0.071056         0.424342         1.127684
        1.000016        -0.000076         0.937783         0.953590         0.040906         0.456098         1.156695
        1.000038        -0.000053         0.970727         0.976837         0.027813         0.476895         1.178341
        1.000061        -0.000029         0.987855         0.989869         0.023151         0.487961         1.190657
        0.999862         0.000170         0.664019         0.965970        -0.138205         0.280851         1.268096
        0.999904         0.000161         0.736506         0.915080        -0.211491         0.330624         1.184721
        0.999940         0.000144         0.762425         0.882107        -0.160963         0.349525         1.119256
        0.999969         0.000123         0.821428         0.889728        -0.085248         0.385474         1.102719
        0.999994         0.000100         0.882651         0.919088        -0.029840         0.422270         1.123624
        1.000016         0.000076         0.935038         0.951702         0.001794         0.454433         1.153766
        1.000037         0.000053         0.969564         0.975930         0.015631         0.476161         1.177123
        1.000060         0.000029         0.987427         0.989519         0.020460         0.487681         1.190248
        1.000084         0.000000         0.995351         0.995875         0.021825         0.492901         1.196338
        0.999827        -0.000176         0.766354         0.979910         0.134609         0.342120         1.251143
        0.999871        -0.000170         0.838987         0.967830         0.168970         0.390940         1.216404
        0.999911        -0.000161         0.833181         0.944026         0.166093         0.389592         1.184689
        0.999946        -0.000145         0.856726         0.928568         0.128316         0.405381         1.151719
        0.999976        -0.000125         0.898871         0.937925         0.081834         0.431604         1.148305
        1.000002        -0.000103         0.939954         0.958557         0.048489         0.457260         1.163002
        1.000028        -0.000081         0.970490         0.977816         0.031500         0.476685         1.179772
        1.000054        -0.000058         0.987328         0.989751         0.024720         0.487604         1.190679
        1.000081        -0.000032         0.995060         0.995686         0.022437         0.492707         1.196187
        0.999814         0.000179         0.709955         0.976028        -0.114725         0.307452         1.262131
        0.999862         0.000171         0.817740         0.965432        -0.145601         0.377683         1.214185
        0.999905         0.000163         0.827411         0.946537        -0.129221         0.386062         1.181995
        0.999942         0.000147         0.853305         0.930224        -0.088784         0.403382         1.148646
        0.999973         0.000127         0.895234         0.937099        -0.041095         0.429451         1.144590
        1.000001         0.000105         0.937167         0.957181        -0.006544         0.455558         1.160318
        1.000027         0.000082         0.968701         0.976554         0.011499         0.475553         1.178034
        1.000053         0.000059         0.986668         0.989230         0.018772         0.487175         1.190020
        1.000081         0.000033         0.994846         0.995508         0.021177         0.492565         1.195984
        1.000108         0.000001         0.998211         0.998247         0.021819         0.494816         1.198581
        0.999778        -0.000185         0.775891         0.982725         0.123778         0.347892         1.250155
        0.999827        -0.000178         0.870080         0.979378         0.138607         0.409669         1.218304
        0.999872        -0.000172         0.891320         0.978932         0.120440         0.424308         1.208167
        0.999913        -0.000164         0.897700         0.967164         0.108788         0.429493         1.189197
        0.999949        -0.000149         0.917121         0.959972         0.083502         0.442321         1.172671
        0.999982        -0.000131         0.945932         0.967373         0.054531         0.460767         1.173297
        1.000012        -0.000110         0.971161         0.980116         0.035180         0.477025         1.182682
        1.000042        -0.000089         0.987180         0.990212         0.026352         0.487484         1.191341
        1.000073        -0.000065         0.994896         0.995707         0.023114         0.492593         1.196271
        1.000105        -0.000037         0.998092         0.998173         0.022083         0.494736         1.198524
        0.999761         0.000188         0.719108         0.978637        -0.106026         0.312859         1.261288
        0.999814         0.000180         0.839480         0.974615        -0.123728         0.390374         1.217602
        0.999863         0.000174         0.876538         0.977046        -0.090594         0.414954         1.205301
        0.999906         0.000166         0.892902         0.968239        -0.070101         0.426470         1.187167
        0.999945         0.000152         0.914468         0.960537        -0.042632         0.440715         1.170531
        0.999979         0.000133         0.943199         0.966486        -0.012902         0.459074         1.170929
        1.000010         0.000111         0.969283         0.979113         0.007384         0.475832         1.181081
        1.000040         0.000090         0.986176         0.989496         0.016899         0.486830         1.190425
        1.000072         0.000066         0.994562         0.995442         0.020432         0.492372         1.195950
        1.000105         0.000038         0.997995         0.998091         0.021536         0.494670         1.198433
        1.000137         0.000001         0.999338         0.999197         0.021816         0.495579         1.199472
        0.999724        -0.000194         0.785649         0.984153         0.119339         0.354021         1.248154
        0.999779        -0.000186         0.877124         0.981342         0.132384         0.414069         1.218054
        0.999828        -0.000180         0.912530         0.986133         0.101071         0.437484         1.209994
        0.999873        -0.000176         0.931797         0.987426         0.083166         0.450454         1.204513
        0.999915        -0.000169         0.941373         0.981849         0.071736         0.457191         1.193902
        0.999953        -0.000155         0.955809         0.979165         0.055162         0.466785         1.186061
        0.999989        -0.000139         0.973671         0.984245         0.038233         0.478522         1.187468
        1.000024        -0.000119         0.987383         0.991218         0.027977         0.487581         1.192608
        1.000059        -0.000099         0.994863         0.995943         0.023776         0.492563         1.196590
        1.000096        -0.000074         0.998065         0.998222         0.022355         0.494716         1.198598
        1.000134        -0.000042         0.999293         0.999170         0.021924         0.495548         1.199453
        0.999701         0.000198         0.729347         0.980279        -0.101734         0.319110         1.259241
        0.999761         0.000189         0.845425         0.976641        -0.118440         0.393991         1.217967
        0.999815         0.000182         0.891755         0.982927        -0.076596         0.424194         1.208128
        0.999863         0.000177         0.921921         0.986119        -0.048406         0.444076         1.202282
        0.999908         0.000171         0.937770         0.982196        -0.031549         0.454861         1.192523
        0.999949         0.000158         0.953586         0.979090        -0.013614         0.465376         1.184620
        0.999986         0.000140         0.971817         0.983521         0.004091         0.477330         1.186059
        1.000021         0.000121         0.986292         0.990607         0.015043         0.486867         1.191750
        1.000057         0.000100         0.994366         0.995588         0.019652         0.492232         1.196157
        1.000094         0.000075         0.997913         0.998101         0.021231         0.494613         1.198456
        1.000133         0.000044         0.999252         0.999135         0.021701         0.495520         1.199415
        1.000170         0.000001         0.999763         0.999558         0.021815         0.495869         1.199810
        0.999665        -0.000203         0.795953         0.985502         0.115039         0.360531         1.245962
        0.999725        -0.000195         0.882062         0.982812         0.127971         0.417217         1.217939
        0.999779        -0.000188         0.916889         0.987349         0.097164         0.440256         1.210054
        0.999828        -0.000183         0.945414         0.991489         0.071091         0.459187         1.205463
        0.999874        -0.000181         0.961022         0.993034         0.056852         0.469681         1.202474
        0.999918        -0.000176         0.968914         0.990686         0.048542         0.475110         1.197122
        0.999959        -0.000164         0.978516         0.990034         0.038343         0.481572         1.193617
        0.999999        -0.000149         0.988369         0.993024         0.029329         0.488179         1.194689
        1.000038        -0.000131         0.994949         0.996373         0.024423         0.492607         1.197121
        1.000079        -0.000111         0.998082         0.998346         0.022600         0.494725         1.198753
        1.000122        -0.000084         0.999301         0.999207         0.022026         0.495554         1.199499
        1.000166        -0.000048         0.999746         0.999549         0.021857         0.495858         1.199804
        0.999635         0.000208         0.739457         0.981826        -0.097476         0.325313         1.257206
        0.999701         0.000199         0.850463         0.978402        -0.113907         0.397134         1.218249
        0.999761         0.000191         0.895263         0.984203        -0.073488         0.426372         1.208672
        0.999815         0.000186         0.931901         0.989454        -0.039590         0.450379         1.203857
        0.999864         0.000182         0.954817         0.992187        -0.018681         0.465589         1.201061
        0.999911         0.000178         0.966422         0.990704        -0.007201         0.473461         1.196279
        0.999954         0.000166         0.976861         0.989759         0.003816         0.480485         1.192738
        0.999995         0.000151         0.987262         0.992547         0.013525         0.487448         1.193931
        1.000035         0.000133         0.994395         0.996053         0.018891         0.492237         1.196709
        1.000077         0.000112         0.997862         0.998189         0.020934         0.494576         1.198569
        1.000121         0.000086         0.999238         0.999157         0.021583         0.495510         1.199441
        1.000165         0.000050         0.999730         0.999535         0.021770         0.495846         1.199789
        1.000209         0.000002         0.999917         0.999690         0.021815         0.495975         1.199933
        0.999598        -0.000213         0.805685         0.986730         0.110846         0.366704         1.243890
        0.999665        -0.000205         0.887261         0.984279         0.123274         0.420554         1.217724
        0.999725        -0.000197         0.919768         0.988268         0.094581         0.442110         1.210221
        0.999779        -0.000192         0.947610         0.992100         0.069164         0.460600         1.205582
        0.999829        -0.000188         0.968872         0.995191         0.049902         0.474843         1.202946
        0.999875        -0.000188         0.979829         0.996419         0.039999         0.482266         1.201322
        0.999921        -0.000185         0.984972         0.995577         0.034878         0.485792         1.198847
        0.999966        -0.000175         0.990538         0.995611         0.029242         0.489584         1.197387
        1.000010        -0.000162         0.995335         0.997117         0.024939         0.492848         1.197970
        1.000055        -0.000146         0.998135         0.998528         0.022831         0.494757         1.198971
        1.000103        -0.000125         0.999325         0.999269         0.022109         0.495569         1.199571
        1.000153        -0.000096         0.999757         0.999570         0.021893         0.495865         1.199828
        1.000204        -0.000054         0.999911         0.999687         0.021830         0.495971         1.199932
        0.999560         0.000219         0.749229         0.983259        -0.093318         0.331339         1.255227
        0.999635         0.000209         0.855557         0.980089        -0.109283         0.400327         1.218433
        0.999702         0.000201         0.898115         0.985292        -0.070944         0.428170         1.209154
        0.999762         0.000194         0.933464         0.990108        -0.038261         0.451358         1.204290
        0.999816         0.000190         0.960595         0.993973        -0.013605         0.469345         1.201919
        0.999866         0.000189         0.976170         0.995908         0.000428         0.479809         1.200560
        0.999914         0.000187         0.983406         0.995491         0.007338         0.484738         1.198390
        0.999961         0.000177         0.989499         0.995368         0.013484         0.488886         1.196916
        1.000006         0.000164         0.994758         0.996856         0.018280         0.492459         1.197609
        1.000052         0.000148         0.997885         0.998382         0.020652         0.494588         1.198794
        1.000100         0.000127         0.999236         0.999206         0.021479         0.495508         1.199499
        1.000151         0.000099         0.999732         0.999550         0.021728         0.495848         1.199806
        1.000203         0.000058         0.999905         0.999682         0.021798         0.495966         1.199926
        1.000253         0.000002         0.999972         0.999737         0.021815         0.496012         1.199977
        0.999525        -0.000224         0.815035         0.987871         0.106737         0.372667         1.241893
        0.999599        -0.000215         0.892270         0.985611         0.118714         0.423781         1.217437
        0.999665        -0.000207         0.922890         0.989192         0.091760         0.444132         1.210309
        0.999725        -0.000200         0.948935         0.992588         0.067995         0.461460         1.205793
        0.999780        -0.000196         0.969718         0.995448         0.049170         0.475390         1.203043
        0.999830        -0.000195         0.983851         0.997474         0.036424         0.484960         1.201541
        0.999878        -0.000197         0.990586         0.998264         0.030336         0.489561         1.200671
        0.999926        -0.000197         0.993450         0.998020         0.027559         0.491530         1.199606
        0.999975        -0.000190         0.996233         0.998168         0.024826         0.493443         1.199046
        1.000024        -0.000179         0.998293         0.998820         0.022997         0.494858         1.199297
        1.000076        -0.000164         0.999358         0.999345         0.022181         0.495591         1.199659
        1.000131        -0.000142         0.999774         0.999599         0.021919         0.495876         1.199860
        1.000189        -0.000109         0.999918         0.999698         0.021843         0.495975         1.199943
        1.000248        -0.000062         0.999970         0.999736         0.021820         0.496011         1.199977
        0.999477         0.000231         0.758258         0.984512        -0.089553         0.336930         1.253386
        0.999560         0.000220         0.860555         0.981658        -0.104731         0.403475         1.218525
        0.999635         0.000211         0.901109         0.986354        -0.068252         0.430068         1.209556
        0.999702         0.000204         0.934689         0.990686        -0.037205         0.452135         1.204696
        0.999762         0.000199         0.960970         0.994247        -0.013310         0.469572         1.202190
        0.999817         0.000197         0.979094         0.996790         0.002998         0.481748         1.201002
        0.999867         0.000198         0.988581         0.997981         0.011530         0.488196         1.200317
        0.999918         0.000198         0.992572         0.997935         0.015282         0.490931         1.199388
        0.999969         0.000192         0.995682         0.998021         0.018329         0.493067         1.198826
        1.000020         0.000181         0.998028         0.998699         0.020441         0.494678         1.199145
        1.000072         0.000166         0.999257         0.999286         0.021386         0.495521         1.199590
        1.000128         0.000145         0.999740         0.999576         0.021694         0.495853         1.199834
        1.000186         0.000113         0.999909         0.999690         0.021784         0.495969         1.199935
        1.000246         0.000067         0.999967         0.999735         0.021809         0.496009         1.199975
        1.000303         0.000003         0.999990         0.999754         0.021815         0.496025         1.199992
        0.999444        -0.000235         0.823768         0.988845         0.103111         0.378259         1.239997
        0.999525        -0.000225         0.897149         0.986840         0.114297         0.426937         1.217102
        0.999599        -0.000217         0.925986         0.990044         0.088952         0.446144         1.210322
        0.999666        -0.000210         0.950495         0.993096         0.066601         0.462481         1.205951
        0.999726        -0.000205         0.970057         0.995657         0.048873         0.475608         1.203212
        0.999781        -0.000203         0.984031         0.997559         0.036273         0.485073         1.201606
        0.999832        -0.000205         0.992427         0.998729         0.028693         0.490811         1.200757
        0.999880        -0.000210         0.996044         0.999159         0.025408         0.493299         1.200314
        0.999932        -0.000212         0.997440         0.999110         0.024072         0.494262         1.199886
        0.999985        -0.000208         0.998641         0.999210         0.022917         0.495092         1.199688
        1.000041        -0.000200         0.999425         0.999454         0.022225         0.495634         1.199777
        1.000101        -0.000185         0.999792         0.999630         0.021939         0.495888         1.199893
        1.000164        -0.000162         0.999927         0.999710         0.021850         0.495981         1.199956
        1.000231        -0.000125         0.999973         0.999741         0.021825         0.496013         1.199981
        1.000298        -0.000070         0.999990         0.999753         0.021817         0.496025         1.199992
        0.999384         0.000243         0.766216         0.985544        -0.086421         0.341880         1.251739
        0.999477         0.000232         0.865187         0.983047        -0.100468         0.406405         1.218546
        0.999560         0.000222         0.904129         0.987354        -0.065527         0.431992         1.209876
        0.999635         0.000214         0.936112         0.991270        -0.035962         0.453047         1.205052
        0.999703         0.000208         0.961176         0.994496        -0.013146         0.469695         1.202460
        0.999763         0.000205         0.978917         0.996873         0.002827         0.481619         1.201154
        0.999818         0.000206         0.989883         0.998374         0.012676         0.489073         1.200520
        0.999870         0.000210         0.995042         0.999018         0.017332         0.492610         1.200172
        0.999923         0.000213         0.997005         0.999056         0.019167         0.493963         1.199795
        0.999979         0.000209         0.998391         0.999139         0.020498         0.494920         1.199599
        1.000036         0.000201         0.999317         0.999405         0.021325         0.495561         1.199720