 TITLE = "flo2d output" 
 VARIABLES="X","Y","rho","u","v","p","M"
 ZONE F=FEPOINT,ET=quadrilateral
 N=       24832 ,E=       24576
        1.000000         0.000000         1.033789         0.001784         0.001788         1.309470         0.001897
        1.000000        -0.000020         1.023032         0.007179         0.083970         1.282473         0.063615
        1.000000         0.000020         1.035455         0.004734        -0.050007         1.311294         0.037724
        1.000002         0.000000         1.037956         0.007949         0.009113         1.317119         0.009073
        0.999998        -0.000042         1.013242         0.030440         0.170673         1.254817         0.131664
        1.000002        -0.000020         1.030110         0.013129         0.082389         1.295727         0.062869
        0.999998         0.000042         1.030339         0.025152        -0.130242         1.291344         0.100140
        1.000002         0.000020         1.038552         0.009801        -0.050311         1.316571         0.038475
        1.000006         0.000000         1.041780         0.019963         0.010534         1.323894         0.016923
        0.999992        -0.000066         0.981670         0.103423         0.284403         1.186199         0.232671
        1.000000        -0.000042         1.018268         0.038386         0.167879         1.262509         0.130711
        1.000005        -0.000020         1.033815         0.026436         0.081689         1.303361         0.064628
        0.999992         0.000066         1.026355         0.078454        -0.216341         1.265785         0.175135
        1.000000         0.000043         1.035402         0.029977        -0.129436         1.299812         0.100219
        1.000005         0.000020         1.042828         0.020706        -0.049486         1.325626         0.040211
        1.000012         0.000000         1.047363         0.037575         0.008791         1.332810         0.028912
        0.999982        -0.000091         0.958049         0.230986         0.403860         1.127658         0.362433
        0.999994        -0.000066         0.991773         0.109423         0.279955         1.203378         0.230622
        1.000003        -0.000043         1.023285         0.053109         0.164475         1.273726         0.130928
        1.000011        -0.000021         1.040382         0.043300         0.081559         1.312804         0.069475
        0.999981         0.000092         1.019358         0.173374        -0.298633         1.229908         0.265689
        0.999994         0.000067         1.031642         0.084246        -0.211955         1.275199         0.173383
        1.000003         0.000043         1.038870         0.039048        -0.125525         1.306666         0.099065
        1.000011         0.000021         1.047983         0.037711        -0.048621         1.334153         0.046090
        1.000020         0.000000         1.054468         0.060238         0.011385         1.344648         0.045882
        0.999965        -0.000115         0.958787         0.392219         0.466071         1.106728         0.479179
        0.999983        -0.000091         0.970874         0.235299         0.397660         1.149565         0.358879
        0.999997        -0.000067         1.001499         0.125374         0.273960         1.220585         0.230651
        1.000008        -0.000044         1.030072         0.071659         0.162186         1.284864         0.134177
        1.000019        -0.000022         1.048618         0.065785         0.080021         1.326208         0.077850
        0.999963         0.000117         0.992695         0.324686        -0.351349         1.161260         0.373827
        0.999982         0.000093         1.023748         0.180431        -0.291836         1.238349         0.263659
        0.999997         0.000068         1.035539         0.093333        -0.207073         1.282057         0.172524
        1.000008         0.000044         1.043667         0.053327        -0.117238         1.314565         0.096991
        1.000019         0.000022         1.053912         0.060962        -0.045545         1.342954         0.056973
        1.000031         0.000000         1.060986         0.090291         0.015210         1.355311         0.068469
        0.999941        -0.000138         0.865819         0.666329         0.473994         0.951521         0.659241
        0.999966        -0.000116         0.955429         0.404282         0.450808         1.104097         0.476070
        0.999986        -0.000093         0.980676         0.245654         0.389682         1.166042         0.357036
        1.000001        -0.000069         1.012713         0.146322         0.266086         1.239977         0.231935
        1.000015        -0.000046         1.040992         0.097617         0.162897         1.300590         0.143592
        1.000030        -0.000023         1.058199         0.096187         0.082016         1.340703         0.094912
        0.999938         0.000141         1.020679         0.505764        -0.356498         1.187421         0.484857
        0.999964         0.000118         1.010236         0.324070        -0.349532         1.191091         0.370999
        0.999985         0.000094         1.028754         0.188766        -0.285351         1.246238         0.262719
        1.000001         0.000070         1.040974         0.107033        -0.202166         1.292791         0.173482
        1.000015         0.000046         1.050342         0.074888        -0.111554         1.327019         0.101026
        1.000030         0.000024         1.060099         0.088408        -0.042196         1.352468         0.073300
        1.000045         0.000000         1.067197         0.119841         0.018353         1.364779         0.090608
        0.999910        -0.000157         0.928034         0.836329         0.348029         1.045122         0.721427
        0.999942        -0.000139         0.903504         0.649258         0.481763         1.010657         0.646049
        0.999968        -0.000118         0.966818         0.405972         0.431261         1.119634         0.465157
        0.999989        -0.000095         0.992120         0.262924         0.376934         1.185671         0.355297
        1.000008        -0.000072         1.027729         0.171958         0.257743         1.261872         0.236323
        1.000025        -0.000049         1.050824         0.130458         0.163433         1.316395         0.157905
        1.000044        -0.000026         1.066369         0.133853         0.086285         1.353989         0.119446
        0.999904         0.000159         1.040184         0.595304        -0.224124         1.208350         0.498790
        0.999938         0.000142         1.027337         0.503506        -0.355202         1.198535         0.482148
        0.999966         0.000120         1.016307         0.331993        -0.342851         1.200947         0.371049
        0.999989         0.000096         1.034893         0.200959        -0.277472         1.256142         0.262817
        1.000007         0.000072         1.048732         0.126511        -0.195357         1.302864         0.176480
        1.000025         0.000049         1.059263         0.101832        -0.109155         1.343386         0.112031
        1.000043         0.000026         1.065980         0.116240        -0.039785         1.363117         0.091824
        1.000063         0.000000         1.075034         0.157351         0.021307         1.376141         0.118612
        0.999871        -0.000168         1.063448         0.829349         0.203927         1.251103         0.665476
        0.999911        -0.000158         0.949901         0.843330         0.356900         1.074359         0.727736
        0.999944        -0.000141         0.915255         0.664167         0.465023         1.022798         0.648209
        0.999971        -0.000121         0.977669         0.415620         0.419032         1.137719         0.462390
        0.999995        -0.000098         1.006936         0.284447         0.357294         1.207652         0.352444
        1.000016        -0.000076         1.042500         0.204450         0.250987         1.282855         0.246635
        1.000038        -0.000053         1.062081         0.171389         0.165003         1.333082         0.179471
        1.000061        -0.000029         1.076219         0.176959         0.090075         1.367259         0.148889
        0.999862         0.000170         1.110573         0.652559        -0.149249         1.320815         0.518776
        0.999904         0.000161         1.053436         0.594876        -0.231592         1.228812         0.499537
        0.999940         0.000144         1.035087         0.509400        -0.346617         1.209303         0.481768
        0.999969         0.000123         1.025963         0.344924        -0.334045         1.216195         0.372727
        0.999994         0.000100         1.043019         0.219420        -0.267554         1.271761         0.264839
        1.000016         0.000076         1.059043         0.153702        -0.187963         1.317635         0.183972
        1.000037         0.000053         1.067576         0.136776        -0.105344         1.354806         0.129521
        1.000060         0.000029         1.074458         0.154807        -0.035666         1.376323         0.118629
        1.000084         0.000000         1.084330         0.200346         0.024996         1.386850         0.150882
        0.999827        -0.000176         1.078736         0.805768         0.143903         1.259828         0.640127
        0.999871        -0.000170         1.039491         0.832988         0.209740         1.209752         0.672953
        0.999911        -0.000161         0.958607         0.844454         0.352376         1.080293         0.728481
        0.999946        -0.000145         0.931410         0.660966         0.451620         1.050780         0.636978
        0.999976        -0.000125         0.991607         0.430659         0.402820         1.157841         0.461215
        1.000002        -0.000103         1.024425         0.312016         0.337473         1.233032         0.354062
        1.000028        -0.000081         1.057163         0.241602         0.242539         1.302962         0.260615
        1.000054        -0.000058         1.075279         0.218181         0.164517         1.349653         0.206136
        1.000081        -0.000032         1.086293         0.222876         0.092644         1.378913         0.181056
        0.999814         0.000179         1.115778         0.649313        -0.114509         1.328285         0.510721
        0.999862         0.000171         1.099407         0.655030        -0.148771         1.301333         0.521800
        0.999905         0.000163         1.057308         0.595210        -0.228514         1.232205         0.499140
        0.999942         0.000147         1.043643         0.512392        -0.325885         1.223316         0.474031
        0.999973         0.000127         1.039273         0.363308        -0.320465         1.236530         0.375358
        1.000001         0.000105         1.055544         0.243570        -0.248906         1.287313         0.266519
        1.000027         0.000082         1.069589         0.187979        -0.177999         1.332063         0.196057
        1.000053         0.000059         1.077504         0.176776        -0.099234         1.364680         0.152243
        1.000081         0.000033         1.083470         0.196786        -0.029889         1.386459         0.148709
        1.000108         0.000001         1.091316         0.241556         0.027419         1.394441         0.181765
        0.999778        -0.000185         1.083543         0.788597         0.134146         1.266903         0.625226
        0.999827        -0.000178         1.078099         0.805200         0.144465         1.258814         0.639835
        0.999872        -0.000172         1.041235         0.837724         0.209568         1.221176         0.673912
        0.999913        -0.000164         0.967783         0.840460         0.344469         1.094058         0.722005
        0.999949        -0.000149         0.952667         0.671681         0.433274         1.082153         0.633829
        0.999982        -0.000131         1.009699         0.450479         0.383325         1.184207         0.461606
        1.000012        -0.000110         1.042938         0.343464         0.315997         1.258038         0.359144
        1.000042        -0.000089         1.072387         0.285891         0.232742         1.322432         0.280568
        1.000073        -0.000065         1.088954         0.266269         0.161067         1.364366         0.234967
        1.000105        -0.000037         1.094545         0.268726         0.092572         1.387710         0.213336
        0.999761         0.000188         1.116223         0.641241        -0.107528         1.328789         0.503647
        0.999814         0.000180         1.114888         0.649501        -0.114571         1.326818         0.510951
        0.999863         0.000174         1.100948         0.654689        -0.147182         1.303317         0.521237
        0.999906         0.000166         1.065404         0.595983        -0.222770         1.244356         0.497569
        0.999945         0.000152         1.053682         0.512686        -0.301768         1.238132         0.463825
        0.999979         0.000133         1.054217         0.383519        -0.299221         1.257878         0.376364
        1.000010         0.000111         1.069859         0.274679        -0.233452         1.306467         0.275699
        1.000040         0.000090         1.081207         0.227417        -0.166025         1.346378         0.213254
        1.000072         0.000066         1.087662         0.219467        -0.091241         1.375003         0.178657
        1.000105         0.000038         1.091637         0.240589        -0.024444         1.393903         0.180869
        1.000137         0.000001         1.101852         0.297258         0.037978         1.399207         0.224753
        0.999724        -0.000194         1.087599         0.778275         0.126812         1.273250         0.615938
        0.999779        -0.000186         1.083384         0.788085         0.134291         1.266647         0.624867
        0.999828        -0.000180         1.078046         0.805571         0.145198         1.258612         0.640258
        0.999873        -0.000176         1.047607         0.838098         0.207722         1.222189         0.675626
        0.999915        -0.000169         0.977979         0.827341         0.333440         1.108822         0.708008
        0.999953        -0.000155         0.975160         0.675072         0.409834         1.114809         0.624247
        0.999989        -0.000139         1.028990         0.471334         0.358347         1.210986         0.461274
        1.000024        -0.000119         1.062002         0.379423         0.293985         1.282884         0.369093
        1.000059        -0.000099         1.089275         0.332123         0.220254         1.340257         0.303640
        1.000096        -0.000074         1.099890         0.312800         0.155460         1.375613         0.263976
        1.000134        -0.000042         1.107051         0.311677         0.092386         1.394079         0.244832
        0.999701         0.000198         1.117085         0.638654        -0.102121         1.330067         0.500945
        0.999761         0.000189         1.116239         0.641177        -0.107626         1.328827         0.503607
        0.999815         0.000182         1.114880         0.648969        -0.114949         1.326782         0.510602
        0.999863         0.000177         1.103521         0.652986        -0.144632         1.307469         0.519295
        0.999908         0.000171         1.072981         0.597038        -0.215295         1.256652         0.495648
        0.999949         0.000158         1.064834         0.510312        -0.275775         1.254291         0.451701
        0.999986         0.000140         1.069736         0.401353        -0.272856         1.279155         0.375094
        1.000021         0.000121         1.085028         0.309735        -0.217340         1.325557         0.289326
        1.000057         0.000100         1.093236         0.269408        -0.151651         1.359414         0.234314
        1.000094         0.000075         1.097004         0.263392        -0.082480         1.383789         0.207693
        1.000133         0.000044         1.099431         0.280359        -0.017489         1.393738         0.210857
        1.000170         0.000001         1.107820         0.338211         0.039230         1.402207         0.255773
        0.999665        -0.000203         1.091890         0.771329         0.120074         1.280117         0.609313
        0.999725        -0.000195         1.087647         0.778337         0.126950         1.273338         0.615995
        0.999779        -0.000188         1.083510         0.788445         0.134610         1.266878         0.625167
        0.999828        -0.000183         1.078000         0.806201         0.146587         1.258536         0.640942
        0.999874        -0.000181         1.052272         0.834556         0.205495         1.223289         0.673710
        0.999918        -0.000176         0.991141         0.815702         0.318567         1.128501         0.693600
        0.999959        -0.000164         0.998879         0.679521         0.382713         1.149235         0.614494
        0.999999        -0.000149         1.048269         0.493380         0.331317         1.237869         0.462213
        1.000038        -0.000131         1.082596         0.416989         0.270850         1.305727         0.382650
        1.000079        -0.000111         1.100586         0.373198         0.206585         1.352821         0.325169
        1.000122        -0.000084         1.116089         0.352433         0.141180         1.385006         0.288040
        1.000166        -0.000048         1.114966         0.368131         0.088879         1.401204         0.285510
        0.999635         0.000208         1.117781         0.638054        -0.097126         1.331158         0.499840
        0.999701         0.000199         1.117092         0.638670        -0.102135         1.330090         0.500957
        0.999761         0.000191         1.116246         0.640937        -0.107710         1.328847         0.503433
        0.999815         0.000186         1.114859         0.647729        -0.115351         1.326715         0.509718
        0.999864         0.000182         1.106169         0.649507        -0.141921         1.311860         0.515959
        0.999911         0.000178         1.081450         0.598653        -0.206238         1.270845         0.493653
        0.999954         0.000166         1.075976         0.506140        -0.248373         1.270395         0.438521
        0.999995         0.000151         1.085279         0.419172        -0.244271         1.300807         0.374524
        1.000035         0.000133         1.099038         0.344810        -0.196624         1.341713         0.303619
        1.000077         0.000112         1.103853         0.310975        -0.136908         1.368628         0.257896
        1.000121         0.000086         1.105122         0.304334        -0.072941         1.387329         0.236064
        1.000165         0.000050         1.109220         0.334144        -0.013481         1.401925         0.251403
        1.000209         0.000002         1.112443         0.375856         0.039567         1.402230         0.284499
        0.999598        -0.000213         1.095230         0.765802         0.113854         1.285525         0.603966
        0.999665        -0.000205         1.091816         0.771379         0.120073         1.280000         0.609358
        0.999725        -0.000197         1.087753         0.778175         0.127055         1.273524         0.615869
        0.999779        -0.000192         1.083624         0.787821         0.134964         1.267065         0.624719
        0.999829        -0.000188         1.078178         0.806237         0.148307         1.258627         0.641242
        0.999875        -0.000188         1.055058         0.827087         0.203692         1.224564         0.668223
        0.999921        -0.000185         1.007369         0.799283         0.301887         1.152383         0.675134
        0.999966        -0.000175         1.022442         0.677996         0.351317         1.183646         0.599814
        1.000010        -0.000162         1.067453         0.516482         0.302823         1.262575         0.465264
        1.000055        -0.000146         1.096649         0.451292         0.248567         1.323997         0.396294
        1.000103        -0.000125         1.121714         0.427642         0.184130         1.369076         0.356184
        1.000153        -0.000096         1.122891         0.410684         0.132106         1.390845         0.327608
        1.000204        -0.000054         1.119365         0.405048         0.084328         1.400645         0.312592
        0.999560         0.000219         1.118487         0.637984        -0.092451         1.332311         0.499196
        0.999635         0.000209         1.117814         0.638066        -0.097147         1.331227         0.499846
        0.999702         0.000201         1.117124         0.638610        -0.102172         1.330161         0.500909
        0.999762         0.000194         1.116321         0.640322        -0.107838         1.328981         0.502970
        0.999816         0.000190         1.115074         0.644710        -0.115737         1.327018         0.507459
        0.999866         0.000189         1.108743         0.644883        -0.139048         1.316175         0.511733
        0.999914         0.000187         1.090779         0.600858        -0.195598         1.286501         0.491749
        0.999961         0.000177         1.088081         0.507936        -0.222928         1.289230         0.430687
        1.000006         0.000164         1.099977         0.438175        -0.215082         1.320809         0.376471
        1.000052         0.000148         1.110853         0.376707        -0.175926         1.354333         0.318234
        1.000100         0.000127         1.114820         0.354140        -0.118775         1.378244         0.283921
        1.000151         0.000099         1.116851         0.355055        -0.061600         1.396555         0.272358
        1.000203         0.000058         1.114145         0.370537        -0.008292         1.401681         0.279269
        1.000253         0.000002         1.116043         0.409971         0.039251         1.400567         0.310713
        0.999525        -0.000224         1.097950         0.761412         0.108051         1.289890         0.599653
        0.999599        -0.000215         1.095184         0.765837         0.113859         1.285459         0.603996
        0.999665        -0.000207         1.091880         0.771266         0.120134         1.280115         0.609268
        0.999725        -0.000200         1.087796         0.777536         0.127183         1.273623         0.615380
        0.999780        -0.000196         1.083799         0.785669         0.135425         1.267338         0.623105
        0.999830        -0.000195         1.078368         0.804528         0.150134         1.258868         0.640182
        0.999878        -0.000197         1.057729         0.817087         0.201919         1.227943         0.660197
        0.999926        -0.000197         1.024970         0.782847         0.284694         1.178583         0.656538
        0.999975        -0.000190         1.046885         0.674557         0.318892         1.218848         0.584425
        1.000024        -0.000179         1.082146         0.539301         0.275703         1.285091         0.469743
        1.000076        -0.000164         1.118469         0.495432         0.218554         1.343199         0.417613
        1.000131        -0.000142         1.128267         0.464851         0.167767         1.376975         0.378077
        1.000189        -0.000109         1.127889         0.446902         0.122035         1.392240         0.352404
        1.000248        -0.000062         1.122700         0.438393         0.079260         1.398831         0.337313
        0.999477         0.000231         1.119311         0.637861        -0.088164         1.333729         0.498555
        0.999560         0.000220         1.118535         0.637997        -0.092483         1.332403         0.499203
        0.999635         0.000211         1.117851         0.638037        -0.097159         1.331307         0.499819
        0.999702         0.000204         1.117200         0.638408        -0.102198         1.330300         0.500748
        0.999762         0.000199         1.116499         0.639298        -0.107954         1.329283         0.502187
        0.999817         0.000197         1.115408         0.641035        -0.115971         1.327502         0.504673
        0.999867         0.000198         1.111954         0.638183        -0.135664         1.321468         0.505818
        0.999918         0.000198         1.098858         0.599136        -0.182116         1.300098         0.486557
        0.999969         0.000192         1.099834         0.515903        -0.200425         1.307240         0.429056
        1.000020         0.000181         1.112264         0.457576        -0.190113         1.338044         0.381810
        1.000072         0.000166         1.123461         0.413976        -0.140539         1.366359         0.335038
        1.000128         0.000145         1.127494         0.395303        -0.098316         1.387609         0.310329
        1.000186         0.000113         1.122553         0.388646        -0.051033         1.397375         0.296927
        1.000246         0.000067         1.117952         0.403551        -0.003827         1.400116         0.304778
        1.000303         0.000003         1.118726         0.440783         0.038461         1.397705         0.334551
        0.999444        -0.000235         1.101365         0.757162         0.102877         1.295449         0.595460
        0.999525        -0.000225         1.098078         0.761407         0.108164         1.290109         0.599645
        0.999599        -0.000217         1.095232         0.765778         0.113903         1.285556         0.603946
        0.999666        -0.000210         1.091916         0.770747         0.120219         1.280184         0.608872
        0.999726        -0.000205         1.087898         0.776803         0.127413         1.273798         0.614830
        0.999781        -0.000203         1.084266         0.783768         0.136110         1.268076         0.621685
        0.999832        -0.000205         1.078693         0.800047         0.152029         1.259492         0.636950
        0.999880        -0.000210         1.061192         0.805127         0.199227         1.232448         0.650456
        0.999932        -0.000212         1.042781         0.764790         0.265189         1.205099         0.636381
        0.999985        -0.000208         1.064809         0.662564         0.284856         1.246722         0.563306
        1.000041        -0.000200         1.105031         0.574074         0.241746         1.310662         0.483387
        1.000101        -0.000185         1.125185         0.525481         0.195763         1.355539         0.431787
        1.000164        -0.000162         1.133383         0.496969         0.151774         1.380200         0.397966
        1.000231        -0.000125         1.131542         0.478723         0.111871         1.391977         0.374615
        1.000298        -0.000070         1.125124         0.468306         0.073991         1.396046         0.359725
        0.999384         0.000243         1.120351         0.637088        -0.084297         1.335487         0.497464
        0.999477         0.000232         1.119359         0.637881        -0.088205         1.333822         0.498567
        0.999560         0.000222         1.118565         0.637987        -0.092493         1.332469         0.499191
        0.999635         0.000214         1.117914         0.637939        -0.097150         1.331436         0.499732
        0.999703         0.000208         1.117313         0.637894        -0.102211         1.330514         0.500342
        0.999763         0.000205         1.116788         0.637538        -0.108042         1.329770         0.500827
        0.999818         0.000206         1.116258         0.636447        -0.115919         1.328841         0.501107
        0.999870         0.000210         1.114858         0.630616        -0.131848         1.326318         0.499203
        0.999923         0.000213         1.106844         0.593592        -0.167499         1.313342         0.478537
        0.999979         0.000209         1.110793         0.526513        -0.179979         1.324587         0.430644
        1.000036         0.000201         1.125033         0.479143        -0.153525         1.350219         0.388154